<?xml version="1.0"?>
<VTKFile type="UnstructuredGrid"  version="0.1"  >
<UnstructuredGrid>
<Piece  NumberOfPoints="1681" NumberOfCells="1600">
<Points>
<DataArray  type="Float64"  NumberOfComponents="3"  format="ascii">0 0 0  0.025 0 0  0.05 0 0  0.07500000000000001 0 0  0.1 0 0  0.125 0 0  0.15 0 0  0.175 0 0  0.2 0 0  0.225 0 0  0.25 0 0  0.275 0 0  0.3 0 0  0.325 0 0  0.35 0 0  0.375 0 0  0.4 0 0  0.425 0 0  0.45 0 0  0.475 0 0  0.5 0 0  0.525 0 0  0.55 0 0  0.5750000000000001 0 0  0.6000000000000001 0 0  0.625 0 0  0.65 0 0  0.675 0 0  0.7000000000000001 0 0  0.7250000000000001 0 0  0.75 0 0  0.775 0 0  0.8 0 0  0.8250000000000001 0 0  0.8500000000000001 0 0  0.875 0 0  0.9 0 0  0.925 0 0  0.9500000000000001 0 0  0.9750000000000001 0 0  1 0 0  0 0.025 0  0.025 0.025 0  0.05 0.025 0  0.07500000000000001 0.025 0  0.1 0.025 0  0.125 0.025 0  0.15 0.025 0  0.175 0.025 0  0.2 0.025 0  0.225 0.025 0  0.25 0.025 0  0.275 0.025 0  0.3 0.025 0  0.325 0.025 0  0.35 0.025 0  0.375 0.025 0  0.4 0.025 0  0.425 0.025 0  0.45 0.025 0  0.475 0.025 0  0.5 0.025 0  0.525 0.025 0  0.55 0.025 0  0.5750000000000001 0.025 0  0.6000000000000001 0.025 0  0.625 0.025 0  0.65 0.025 0  0.675 0.025 0  0.7000000000000001 0.025 0  0.7250000000000001 0.025 0  0.75 0.025 0  0.775 0.025 0  0.8 0.025 0  0.8250000000000001 0.025 0  0.8500000000000001 0.025 0  0.875 0.025 0  0.9 0.025 0  0.925 0.025 0  0.9500000000000001 0.025 0  0.9750000000000001 0.025 0  1 0.025 0  0 0.05 0  0.025 0.05 0  0.05 0.05 0  0.07500000000000001 0.05 0  0.1 0.05 0  0.125 0.05 0  0.15 0.05 0  0.175 0.05 0  0.2 0.05 0  0.225 0.05 0  0.25 0.05 0  0.275 0.05 0  0.3 0.05 0  0.325 0.05 0  0.35 0.05 0  0.375 0.05 0  0.4 0.05 0  0.425 0.05 0  0.45 0.05 0  0.475 0.05 0  0.5 0.05 0  0.525 0.05 0  0.55 0.05 0  0.5750000000000001 0.05 0  0.6000000000000001 0.05 0  0.625 0.05 0  0.65 0.05 0  0.675 0.05 0  0.7000000000000001 0.05 0  0.7250000000000001 0.05 0  0.75 0.05 0  0.775 0.05 0  0.8 0.05 0  0.8250000000000001 0.05 0  0.8500000000000001 0.05 0  0.875 0.05 0  0.9 0.05 0  0.925 0.05 0  0.9500000000000001 0.05 0  0.9750000000000001 0.05 0  1 0.05 0  0 0.07500000000000001 0  0.025 0.07500000000000001 0  0.05 0.07500000000000001 0  0.07500000000000001 0.07500000000000001 0  0.1 0.07500000000000001 0  0.125 0.07500000000000001 0  0.15 0.07500000000000001 0  0.175 0.07500000000000001 0  0.2 0.07500000000000001 0  0.225 0.07500000000000001 0  0.25 0.07500000000000001 0  0.275 0.07500000000000001 0  0.3 0.07500000000000001 0  0.325 0.07500000000000001 0  0.35 0.07500000000000001 0  0.375 0.07500000000000001 0  0.4 0.07500000000000001 0  0.425 0.07500000000000001 0  0.45 0.07500000000000001 0  0.475 0.07500000000000001 0  0.5 0.07500000000000001 0  0.525 0.07500000000000001 0  0.55 0.07500000000000001 0  0.5750000000000001 0.07500000000000001 0  0.6000000000000001 0.07500000000000001 0  0.625 0.07500000000000001 0  0.65 0.07500000000000001 0  0.675 0.07500000000000001 0  0.7000000000000001 0.07500000000000001 0  0.7250000000000001 0.07500000000000001 0  0.75 0.07500000000000001 0  0.775 0.07500000000000001 0  0.8 0.07500000000000001 0  0.8250000000000001 0.07500000000000001 0  0.8500000000000001 0.07500000000000001 0  0.875 0.07500000000000001 0  0.9 0.07500000000000001 0  0.925 0.07500000000000001 0  0.9500000000000001 0.07500000000000001 0  0.9750000000000001 0.07500000000000001 0  1 0.07500000000000001 0  0 0.1 0  0.025 0.1 0  0.05 0.1 0  0.07500000000000001 0.1 0  0.1 0.1 0  0.125 0.1 0  0.15 0.1 0  0.175 0.1 0  0.2 0.1 0  0.225 0.1 0  0.25 0.1 0  0.275 0.1 0  0.3 0.1 0  0.325 0.1 0  0.35 0.1 0  0.375 0.1 0  0.4 0.1 0  0.425 0.1 0  0.45 0.1 0  0.475 0.1 0  0.5 0.1 0  0.525 0.1 0  0.55 0.1 0  0.5750000000000001 0.1 0  0.6000000000000001 0.1 0  0.625 0.1 0  0.65 0.1 0  0.675 0.1 0  0.7000000000000001 0.1 0  0.7250000000000001 0.1 0  0.75 0.1 0  0.775 0.1 0  0.8 0.1 0  0.8250000000000001 0.1 0  0.8500000000000001 0.1 0  0.875 0.1 0  0.9 0.1 0  0.925 0.1 0  0.9500000000000001 0.1 0  0.9750000000000001 0.1 0  1 0.1 0  0 0.125 0  0.025 0.125 0  0.05 0.125 0  0.07500000000000001 0.125 0  0.1 0.125 0  0.125 0.125 0  0.15 0.125 0  0.175 0.125 0  0.2 0.125 0  0.225 0.125 0  0.25 0.125 0  0.275 0.125 0  0.3 0.125 0  0.325 0.125 0  0.35 0.125 0  0.375 0.125 0  0.4 0.125 0  0.425 0.125 0  0.45 0.125 0  0.475 0.125 0  0.5 0.125 0  0.525 0.125 0  0.55 0.125 0  0.5750000000000001 0.125 0  0.6000000000000001 0.125 0  0.625 0.125 0  0.65 0.125 0  0.675 0.125 0  0.7000000000000001 0.125 0  0.7250000000000001 0.125 0  0.75 0.125 0  0.775 0.125 0  0.8 0.125 0  0.8250000000000001 0.125 0  0.8500000000000001 0.125 0  0.875 0.125 0  0.9 0.125 0  0.925 0.125 0  0.9500000000000001 0.125 0  0.9750000000000001 0.125 0  1 0.125 0  0 0.15 0  0.025 0.15 0  0.05 0.15 0  0.07500000000000001 0.15 0  0.1 0.15 0  0.125 0.15 0  0.15 0.15 0  0.175 0.15 0  0.2 0.15 0  0.225 0.15 0  0.25 0.15 0  0.275 0.15 0  0.3 0.15 0  0.325 0.15 0  0.35 0.15 0  0.375 0.15 0  0.4 0.15 0  0.425 0.15 0  0.45 0.15 0  0.475 0.15 0  0.5 0.15 0  0.525 0.15 0  0.55 0.15 0  0.5750000000000001 0.15 0  0.6000000000000001 0.15 0  0.625 0.15 0  0.65 0.15 0  0.675 0.15 0  0.7000000000000001 0.15 0  0.7250000000000001 0.15 0  0.75 0.15 0  0.775 0.15 0  0.8 0.15 0  0.8250000000000001 0.15 0  0.8500000000000001 0.15 0  0.875 0.15 0  0.9 0.15 0  0.925 0.15 0  0.9500000000000001 0.15 0  0.9750000000000001 0.15 0  1 0.15 0  0 0.175 0  0.025 0.175 0  0.05 0.175 0  0.07500000000000001 0.175 0  0.1 0.175 0  0.125 0.175 0  0.15 0.175 0  0.175 0.175 0  0.2 0.175 0  0.225 0.175 0  0.25 0.175 0  0.275 0.175 0  0.3 0.175 0  0.325 0.175 0  0.35 0.175 0  0.375 0.175 0  0.4 0.175 0  0.425 0.175 0  0.45 0.175 0  0.475 0.175 0  0.5 0.175 0  0.525 0.175 0  0.55 0.175 0  0.5750000000000001 0.175 0  0.6000000000000001 0.175 0  0.625 0.175 0  0.65 0.175 0  0.675 0.175 0  0.7000000000000001 0.175 0  0.7250000000000001 0.175 0  0.75 0.175 0  0.775 0.175 0  0.8 0.175 0  0.8250000000000001 0.175 0  0.8500000000000001 0.175 0  0.875 0.175 0  0.9 0.175 0  0.925 0.175 0  0.9500000000000001 0.175 0  0.9750000000000001 0.175 0  1 0.175 0  0 0.2 0  0.025 0.2 0  0.05 0.2 0  0.07500000000000001 0.2 0  0.1 0.2 0  0.125 0.2 0  0.15 0.2 0  0.175 0.2 0  0.2 0.2 0  0.225 0.2 0  0.25 0.2 0  0.275 0.2 0  0.3 0.2 0  0.325 0.2 0  0.35 0.2 0  0.375 0.2 0  0.4 0.2 0  0.425 0.2 0  0.45 0.2 0  0.475 0.2 0  0.5 0.2 0  0.525 0.2 0  0.55 0.2 0  0.5750000000000001 0.2 0  0.6000000000000001 0.2 0  0.625 0.2 0  0.65 0.2 0  0.675 0.2 0  0.7000000000000001 0.2 0  0.7250000000000001 0.2 0  0.75 0.2 0  0.775 0.2 0  0.8 0.2 0  0.8250000000000001 0.2 0  0.8500000000000001 0.2 0  0.875 0.2 0  0.9 0.2 0  0.925 0.2 0  0.9500000000000001 0.2 0  0.9750000000000001 0.2 0  1 0.2 0  0 0.225 0  0.025 0.225 0  0.05 0.225 0  0.07500000000000001 0.225 0  0.1 0.225 0  0.125 0.225 0  0.15 0.225 0  0.175 0.225 0  0.2 0.225 0  0.225 0.225 0  0.25 0.225 0  0.275 0.225 0  0.3 0.225 0  0.325 0.225 0  0.35 0.225 0  0.375 0.225 0  0.4 0.225 0  0.425 0.225 0  0.45 0.225 0  0.475 0.225 0  0.5 0.225 0  0.525 0.225 0  0.55 0.225 0  0.5750000000000001 0.225 0  0.6000000000000001 0.225 0  0.625 0.225 0  0.65 0.225 0  0.675 0.225 0  0.7000000000000001 0.225 0  0.7250000000000001 0.225 0  0.75 0.225 0  0.775 0.225 0  0.8 0.225 0  0.8250000000000001 0.225 0  0.8500000000000001 0.225 0  0.875 0.225 0  0.9 0.225 0  0.925 0.225 0  0.9500000000000001 0.225 0  0.9750000000000001 0.225 0  1 0.225 0  0 0.25 0  0.025 0.25 0  0.05 0.25 0  0.07500000000000001 0.25 0  0.1 0.25 0  0.125 0.25 0  0.15 0.25 0  0.175 0.25 0  0.2 0.25 0  0.225 0.25 0  0.25 0.25 0  0.275 0.25 0  0.3 0.25 0  0.325 0.25 0  0.35 0.25 0  0.375 0.25 0  0.4 0.25 0  0.425 0.25 0  0.45 0.25 0  0.475 0.25 0  0.5 0.25 0  0.525 0.25 0  0.55 0.25 0  0.5750000000000001 0.25 0  0.6000000000000001 0.25 0  0.625 0.25 0  0.65 0.25 0  0.675 0.25 0  0.7000000000000001 0.25 0  0.7250000000000001 0.25 0  0.75 0.25 0  0.775 0.25 0  0.8 0.25 0  0.8250000000000001 0.25 0  0.8500000000000001 0.25 0  0.875 0.25 0  0.9 0.25 0  0.925 0.25 0  0.9500000000000001 0.25 0  0.9750000000000001 0.25 0  1 0.25 0  0 0.275 0  0.025 0.275 0  0.05 0.275 0  0.07500000000000001 0.275 0  0.1 0.275 0  0.125 0.275 0  0.15 0.275 0  0.175 0.275 0  0.2 0.275 0  0.225 0.275 0  0.25 0.275 0  0.275 0.275 0  0.3 0.275 0  0.325 0.275 0  0.35 0.275 0  0.375 0.275 0  0.4 0.275 0  0.425 0.275 0  0.45 0.275 0  0.475 0.275 0  0.5 0.275 0  0.525 0.275 0  0.55 0.275 0  0.5750000000000001 0.275 0  0.6000000000000001 0.275 0  0.625 0.275 0  0.65 0.275 0  0.675 0.275 0  0.7000000000000001 0.275 0  0.7250000000000001 0.275 0  0.75 0.275 0  0.775 0.275 0  0.8 0.275 0  0.8250000000000001 0.275 0  0.8500000000000001 0.275 0  0.875 0.275 0  0.9 0.275 0  0.925 0.275 0  0.9500000000000001 0.275 0  0.9750000000000001 0.275 0  1 0.275 0  0 0.3 0  0.025 0.3 0  0.05 0.3 0  0.07500000000000001 0.3 0  0.1 0.3 0  0.125 0.3 0  0.15 0.3 0  0.175 0.3 0  0.2 0.3 0  0.225 0.3 0  0.25 0.3 0  0.275 0.3 0  0.3 0.3 0  0.325 0.3 0  0.35 0.3 0  0.375 0.3 0  0.4 0.3 0  0.425 0.3 0  0.45 0.3 0  0.475 0.3 0  0.5 0.3 0  0.525 0.3 0  0.55 0.3 0  0.5750000000000001 0.3 0  0.6000000000000001 0.3 0  0.625 0.3 0  0.65 0.3 0  0.675 0.3 0  0.7000000000000001 0.3 0  0.7250000000000001 0.3 0  0.75 0.3 0  0.775 0.3 0  0.8 0.3 0  0.8250000000000001 0.3 0  0.8500000000000001 0.3 0  0.875 0.3 0  0.9 0.3 0  0.925 0.3 0  0.9500000000000001 0.3 0  0.9750000000000001 0.3 0  1 0.3 0  0 0.325 0  0.025 0.325 0  0.05 0.325 0  0.07500000000000001 0.325 0  0.1 0.325 0  0.125 0.325 0  0.15 0.325 0  0.175 0.325 0  0.2 0.325 0  0.225 0.325 0  0.25 0.325 0  0.275 0.325 0  0.3 0.325 0  0.325 0.325 0  0.35 0.325 0  0.375 0.325 0  0.4 0.325 0  0.425 0.325 0  0.45 0.325 0  0.475 0.325 0  0.5 0.325 0  0.525 0.325 0  0.55 0.325 0  0.5750000000000001 0.325 0  0.6000000000000001 0.325 0  0.625 0.325 0  0.65 0.325 0  0.675 0.325 0  0.7000000000000001 0.325 0  0.7250000000000001 0.325 0  0.75 0.325 0  0.775 0.325 0  0.8 0.325 0  0.8250000000000001 0.325 0  0.8500000000000001 0.325 0  0.875 0
[...]
<PointData  Scalars="f_155"> 
<DataArray  type="Float64"  Name="f_155"  format="ascii">0.0000000000000000e+00  0.0000000000000000e+00  0.0000000000000000e+00  0.0000000000000000e+00  0.0000000000000000e+00  0.0000000000000000e+00  0.0000000000000000e+00  0.0000000000000000e+00  0.0000000000000000e+00  0.0000000000000000e+00  0.0000000000000000e+00  0.0000000000000000e+00  0.0000000000000000e+00  0.0000000000000000e+00  0.0000000000000000e+00  0.0000000000000000e+00  0.0000000000000000e+00  0.0000000000000000e+00  0.0000000000000000e+00  0.0000000000000000e+00  0.0000000000000000e+00  0.0000000000000000e+00  0.0000000000000000e+00  0.0000000000000000e+00  0.0000000000000000e+00  0.0000000000000000e+00  0.0000000000000000e+00  0.0000000000000000e+00  0.0000000000000000e+00  0.0000000000000000e+00  0.0000000000000000e+00  0.0000000000000000e+00  0.0000000000000000e+00  0.0000000000000000e+00  0.0000000000000000e+00  0.0000000000000000e+00  0.0000000000000000e+00  0.0000000000000000e+00  0.0000000000000000e+00  0.0000000000000000e+00  0.0000000000000000e+00  0.0000000000000000e+00  6.1558302681088946e-03  1.2273707901547188e-02  1.8315913952013266e-02  2.4245196344084004e-02  3.0024999020269085e-02  3.5619687600958072e-02  4.0994768959484437e-02  4.6117103936676167e-02  5.0955111631983047e-02  5.5478964120052550e-02  5.9660770345578984e-02  6.3474748082754967e-02  6.6897382890483706e-02  6.9907573087064884e-02  7.2486759848933199e-02  7.4619041632041055e-02  7.6291272210136943e-02  7.7493141725635456e-02  7.8217240253311032e-02  7.8459103484953011e-02  7.8217240253310547e-02  7.7493141725635081e-02  7.6291272210136707e-02  7.4619041632040486e-02  7.2486759848932283e-02  6.9907573087063468e-02  6.6897382890481874e-02  6.3474748082752872e-02  5.9660770345576736e-02  5.5478964120050239e-02  5.0955111631980618e-02  4.6117103936673960e-02  4.0994768959482231e-02  3.5619687600956108e-02  3.0024999020267441e-02  2.4245196344082662e-02  1.8315913952012146e-02  1.2273707901546497e-02  6.1558302681084991e-03  0.0000000000000000e+00  0.0000000000000000e+00  1.2273707901547182e-02  2.4471744523713226e-02  3.6518904519104785e-02  4.8340913407666920e-02  5.9864884454040410e-02  7.1019768596190858e-02  8.1736792241787898e-02  9.1949881385852861e-02  1.0159606893349556e-01  1.1061588293257626e-01  1.1895371322963391e-01  1.2655815432860576e-01  1.3338232232124203e-01  1.3938414394266357e-01  1.4452661596673935e-01  1.4877803334340739e-01  1.5211218467079460e-01  1.5450851379725292e-01  1.5595224655685672e-01  1.5643448185705272e-01  1.5595224655685619e-01  1.5450851379725247e-01  1.5211218467079382e-01  1.4877803334340581e-01  1.4452661596673760e-01  1.3938414394266108e-01  1.3338232232123889e-01  1.2655815432860168e-01  1.1895371322962915e-01  1.1061588293257152e-01  1.0159606893349078e-01  9.1949881385848503e-02  8.1736792241783748e-02  7.1019768596187111e-02  5.9864884454037121e-02  4.8340913407664221e-02  3.6518904519102648e-02  2.4471744523711838e-02  1.2273707901546463e-02  0.0000000000000000e+00  0.0000000000000000e+00  1.8315913952013277e-02  3.6518904519104750e-02  5.4496743621330175e-02  7.2138592301429966e-02  8.9335682517685019e-02  1.0598198856726526e-01  1.2197488040475975e-01  1.3721575654809348e-01  1.5161065192158801e-01  1.6507081721112546e-01  1.7751326602059589e-01  1.8886128651604589e-01  1.9904491437730973e-01  2.0800136415231463e-01  2.1567541634983656e-01  2.2201975788621336e-01  2.2699527378615764e-01  2.3057128833962298e-01  2.3272575422774053e-01  2.3344538845187796e-01  2.3272575422773972e-01  2.3057128833962198e-01  2.2699527378615580e-01  2.2201975788621089e-01  2.1567541634983381e-01  2.0800136415231124e-01  1.9904491437730537e-01  1.8886128651604012e-01  1.7751326602058887e-01  1.6507081721111808e-01  1.5161065192158080e-01  1.3721575654808690e-01  1.2197488040475361e-01  1.0598198856725956e-01  8.9335682517680232e-02  7.2138592301426094e-02  5.4496743621327198e-02  3.6518904519102724e-02  1.8315913952012149e-02  0.0000000000000000e+00  0.0000000000000000e+00  2.4245196344083939e-02  4.8340913407666823e-02  7.2138592301429882e-02  9.5491512949685178e-02  1.1825569659525204e-01  1.4029079457797758e-01  1.6146095314749476e-01  1.8163565125533218e-01  2.0069050517074682e-01  2.1850803538647395e-01  2.3497839090229394e-01  2.5000002650015224e-01  2.6348032880110789e-01  2.7533618725894116e-01  2.8549450656373432e-01  2.9389265729901148e-01  3.0047886207281210e-01  3.0521251474257355e-01  3.0806443076548679e-01  3.0901702713091189e-01  3.0806443076548545e-01  3.0521251474257127e-01  3.0047886207280899e-01  2.9389265729900854e-01  2.8549450656373088e-01  2.7533618725893672e-01  2.6348032880110261e-01  2.5000002650014552e-01  2.3497839090228570e-01  2.1850803538646496e-01  2.0069050517073755e-01  1.8163565125532349e-01  1.6146095314748693e-01  1.4029079457797070e-01  1.1825569659524600e-01  9.5491512949680293e-02  7.2138592301426177e-02  4.8340913407664290e-02  2.4245196344082554e-02  0.0000000000000000e+00  0.0000000000000000e+00  3.0024999020268985e-02  5.9864884454040257e-02  8.9335682517684964e-02  1.1825569659525205e-01  1.4644662489112223e-01  1.7373466108408570e-01  1.9995156530246672e-01  2.2493570163716145e-01  2.4853303456951742e-01  2.7059807869943908e-01  2.9099479569062370e-01  3.0959743300102821e-01  3.2629129918528327e-01  3.4097347100723924e-01  3.5355342799523098e-01  3.6395361053119507e-01  3.7210989803137462e-01  3.7797200427109451e-01  3.8150378741603591e-01  3.8268347284867588e-01  3.8150378741603458e-01  3.7797200427109157e-01  3.7210989803137057e-01  3.6395361053119024e-01  3.5355342799522516e-01  3.4097347100723291e-01  3.2629129918527650e-01  3.0959743300102016e-01  2.9099479569061398e-01  2.7059807869942887e-01  2.4853303456950732e-01  2.2493570163715115e-01  1.9995156530245717e-01  1.7373466108407709e-01  1.4644662489111512e-01  1.1825569659524626e-01  8.9335682517680232e-02  5.9864884454037301e-02  3.0024999020267267e-02  0.0000000000000000e+00  0.0000000000000000e+00  3.5619687600957954e-02  7.1019768596190788e-02  1.0598198856726512e-01  1.4029079457797772e-01  1.7373466108408592e-01  2.0610739567704373e-01  2.3720940961857787e-01  2.6684894867803977e-01  2.9484327522902182e-01  3.2101979494442873e-01  3.4521712087342182e-01  3.6728606845617573e-01  3.8709057529176183e-01  4.0450854001004932e-01  4.1943257506641163e-01  4.3177066882201515e-01  4.4144675282600998e-01  4.4840117080289260e-01  4.5259104645325376e-01  4.5399054780043635e-01  4.5259104645325260e-01  4.4840117080288855e-01  4.4144675282600399e-01  4.3177066882200776e-01  4.1943257506640319e-01  4.0450854001003977e-01  3.8709057529175261e-01  3.6728606845616563e-01  3.4521712087341111e-01  3.2101979494441779e-01  2.9484327522901027e-01  2.6684894867802872e-01  2.3720940961856729e-01  2.0610739567703418e-01  1.7373466108407795e-01  1.4029079457797114e-01  1.0598198856725982e-01  7.1019768596187097e-02  3.5619687600955970e-02  0.0000000000000000e+00  0.0000000000000000e+00  4.0994768959484479e-02  8.1736792241787856e-02  1.2197488040475972e-01  1.6146095314749501e-01  1.9995156530246710e-01  2.3720940961857817e-01  2.7300477902191816e-01  3.0711698318890757e-01  3.3933570902363397e-01  3.6946231737343993e-01  3.9731106767718277e-01  4.2271026312968923e-01  4.4550330924443277e-01  4.6554967931286223e-01  4.8272578079732242e-01  4.9692571732056712e-01  5.0806194155195650e-01  5.1606579496594074e-01  5.2088793114466825e-01  5.2249862001507552e-01  5.2088793114466680e-01  5.1606579496593641e-01  5.0806194155194995e-01  4.9692571732055862e-01  4.8272578079731276e-01  4.6554967931285141e-01  4.4550330924442166e-01  4.2271026312967758e-01  3.9731106767717100e-01  3.6946231737342766e-01  3.3933570902362148e-01  3.0711698318889569e-01  2.7300477902190728e-01  2.3720940961856782e-01  1.9995156530245781e-01  1.6146095314748765e-01  1.2197488040475385e-01  8.1736792241783707e-02  4.0994768959482321e-02  0.0000000000000000e+00  0.0000000000000000e+00  4.6117103936676222e-02  9.1949881385852902e-02  1.3721575654809370e-01  1.8163565125533215e-01  2.2493570163716162e-01  2.6684894867804049e-01  3.0711698318890823e-01  3.4549153938247784e-01  3.8173602534349926e-01  4.1562698177017582e-01  4.4695545964337818e-01  4.7552830848047850e-01  5.0116936716642801e-01  5.2372055004813856e-01  5.4304282158401629e-01  5.5901705354477937e-01  5.7154475947839944e-01  5.8054870191191876e-01  5.8597336854611748e-01  5.8778531450731109e-01  5.8597336854611604e-01  5.8054870191191466e-01  5.7154475947839256e-01  5.5901705354477138e-01  5.4304282158400730e-01  5.2372055004812756e-01  5.0116936716641580e-01  4.7552830848046557e-01  4.4695545964336469e-01  4.1562698177016222e-01  3.8173602534348600e-01  3.4549153938246541e-01  3.0711698318889574e-01  2.6684894867802872e-01  2.2493570163715165e-01  1.8163565125532408e-01  1.3721575654808729e-01  9.1949881385848808e-02  4.6117103936673787e-02  0.0000000000000000e+00  0.0000000000000000e+00  5.0955111631983005e-02  1.0159606893349545e-01  1.5161065192158796e-01  2.0069050517074674e-01  2.4853303456951761e-01  2.9484327522902226e-01  3.3933570902363397e-01  3.8173602534349887e-01  4.2178281212186275e-01  4.5922916760869475e-01  4.9384422256706978e-01  5.2541456367386208e-01  5.5374554927735498e-01  5.7866250943054809e-01  6.0001182278825749e-01  6.1766186373431331e-01  6.3150381389702903e-01  6.4145233305074489e-01  6.4744608526665615e-01  6.4944811706922967e-01  6.4744608526665415e-01  6.4145233305074123e-01  6.3150381389702315e-01  6.1766186373430620e-01  6.0001182278824827e-01  5.7866250943053721e-01  5.5374554927734143e-01  5.2541456367384798e-01  4.9384422256705585e-01  4.5922916760868010e-01  4.2178281212184870e-01  3.8173602534348661e-01  3.3933570902362176e-01  2.9484327522901033e-01  2.4853303456950712e-01  2.0069050517073847e-01  1.5161065192158135e-01  1.0159606893349105e-01  5.0955111631980542e-02  0.0000000000000000e+00  0.0000000000000000e+00  5.5478964120052467e-02  1.1061588293257604e-01  1.6507081721112521e-01  2.1850803538647409e-01  2.7059807869943925e-01  3.2101979494442928e-01  3.6946231737343982e-01  4.1562698177017526e-01  4.5922916760869520e-01  5.0000005292212624e-01  5.3768827164136324e-01  5.7206146336688646e-01  6.0290770594081766e-01  6.3003682202055000e-01  6.5328155158398626e-01  6.7249858314376110e-01  6.8756943730997666e-01  6.9840119725514005e-01  7.0492708157725992e-01  7.0710685602941570e-01  7.0492708157725847e-01  6.9840119725513650e-01  6.8756943730997067e-01  6.7249858314375366e-01  6.5328155158397694e-01  6.3003682202053790e-01  6.0290770594080301e-01  5.7206146336687069e-01  5.3768827164134814e-01  5.0000005292211125e-01  4.5922916760867954e-01  4.1562698177016183e-01  3.6946231737342672e-01  3.2101979494441685e-01  2.7059807869942903e-01  2.1850803538646552e-01  1.6507081721111844e-01  1.1061588293257146e-01  5.5478964120049816e-02  0.0000000000000000e+00  0.0000000000000000e+00  5.9660770345578894e-02  1.1895371322963362e-01  1.7751326602059572e-01  2.3497839090229389e-01  2.9099479569062331e-01  3.4521712087342182e-01  3.9731106767718255e-01  4.4695545964337757e-01  4.9384422256706928e-01  5.3768827164136335e-01  5.7821729372037667e-01  6.1518141390732384e-01  6.4835273610874444e-01  6.7752674809298163e-01  7.0252358237467927e-01  7.2318912515825728e-01  7.3939596650043804e-01  7.5104418583503918e-01  7.5806196801643255e-01  7.6040604608381901e-01  7.5806196801642955e-01  7.5104418583503507e-01  7.3939596650043227e-01  7.2318912515824885e-01  7.0252358237466939e-01  6.7752674809296820e-01  6.4835273610872923e-01  6.1518141390730718e-01  5.7821729372036046e-01  5.3768827164134780e-01  4.9384422256705407e-01  4.4695545964336336e-01  3.9731106767716950e-01  3.4521712087340939e-01  2.9099479569061310e-01  2.3497839090228528e-01  1.7751326602058828e-01  1.1895371322962844e-01  5.9660770345576188e-02  0.0000000000000000e+00  0.0000000000000000e+00  6.3474748082754995e-02  1.2655815432860570e-01  1.8886128651604572e-01  2.5000002650015207e-01  3.0959743300102788e-01  3.6728606845617517e-01  4.2271026312968907e-01  4.7552830848047739e-01  5.2541456367386030e-01  5.7206146336688501e-01  6.1518141390732339e-01  6.5450856646295508e-01  6.8980045605993701e-01  7.2083949646347600e-01  7.4743432166781976e-01  7.6942096573196594e-01  7.8666387368393176e-01  7.9905673726235693e-01  8.0652315034223132e-01  8.0901708000408246e-01  8.0652315034222832e-01  7.9905673726235338e-01  7.8666387368392610e-01  7.6942096573195817e-01  7.4743432166781032e-01  7.2083949646346346e-01  6.8980045605992235e-01  6.5450856646293820e-01  6.1518141390730618e-01  5.7206146336686914e-01  5.2541456367384587e-01  4.7552830848046346e-01  4.2271026312967597e-01  3.6728606845616368e-01  3.0959743300101794e-01  2.5000002650014375e-01  1.8886128651603853e-01  1.2655815432860054e-01  6.3474748082752247e-02  0.0000000000000000e+00  0.0000000000000000e+00  6.6897382890483872e-02  1.3338232232124220e-01  1.9904491437731009e-01  2.6348032880110805e-01  3.2629129918528310e-01  3.8709057529176105e-01  4.4550330924443221e-01  5.0116936716642646e-01  5.5374554927735309e-01  6.0290770594081566e-01  6.4835273610874355e-01  6.8980045605993667e-01  7.2699532681735834e-01  7.5970802963457429e-01  7.8773687982049401e-01  8.1090907019324543e-01  8.2908173649361661e-01  8.4214283819085611e-01  8.5001184924973572e-01  8.5264025460036896e-01  8.5001184924973283e-01  8.4214283819085278e-01  8.2908173649361250e-01  8.1090907019323766e-01  7.8773687982048335e-01  7.5970802963456163e-01  7.2699532681734502e-01  6.8980045605992302e-01  6.4835273610872823e-01  6.0290770594080112e-01  5.5374554927733866e-01  5.0116936716641203e-01  4.4550330924441817e-01  3.8709057529174934e-01  3.2629129918527333e-01  2.6348032880109984e-01  1.9904491437730276e-01  1.3338232232123745e-01  6.6897382890481444e-02  0.0000000000000000e+00  0.0000000000000000e+00  6.9907573087064856e-02  1.3938414394266371e-01  2.0800136415231466e-01  2.7533618725894138e-01  3.4097347100723907e-01  4.0450854001004777e-01  4.6554967931286068e-01  5.2372055004813711e-01  5.7866250943054609e-01  6.3003682202054778e-01  6.7752674809297919e-01  7.2083949646347489e-01  7.5970802963457251e-01  7.9389271017452367e-01  8.2318277816008933e-01  8.4739765058226479e-01  8.6638803470027903e-01  8.8003684848111263e-01  8.8825994244910844e-01  8.9100661849550333e-01  8.8825994244910722e-01  8.8003684848110819e-01  8.6638803470027359e-01  8.4739765058225691e-01  8.2318277816007956e-01  7.9389271017451324e-01  7.5970802963456285e-01  7.2083949646346313e-01  6.7752674809296665e-01  6.3003682202053501e-01  5.7866250943053132e-01  5.2372055004812235e-01  4.6554967931284696e-01  4.0450854001003650e-01  3.4097347100722891e-01  2.7533618725893311e-01  2.0800136415230777e-01  1.3938414394265897e-01  6.9907573087062289e-02  0.0000000000000000e+00  0.0000000000000000e+00  7.2486759848933463e-02  1.4452661596673994e-01  2.1567541634983670e-01  2.8549450656373460e-01  3.5355342799523076e-01  4.1943257506641052e-01  4.8272578079732120e-01  5.4304282158401640e-01  6.0001182278825682e-01  6.5328155158398449e-01  7.0252358237467816e-01  7.4743432166781909e-01  7.8773687982049334e-01  8.2318277816008778e-01  8.5355348093622951e-01  8.7866174266708474e-01  8.9835276256970809e-01  9.1250513895848462e-01  9.2103161772682807e-01  9.2387963029779663e-01  9.2103161772682607e-01  9.1250513895847907e-01  8.9835276256969987e-01  8.7866174266707364e-01  8.5355348093621974e-01  8.2318277816007923e-01  7.8773687982048346e-01  7.4743432166780921e-01  7.0252358237466528e-01  6.5328155158397305e-01  6.0001182278824317e-01  5.4304282158400219e-01  4.8272578079730882e-01  4.1943257506639936e-01  3.5355342799522083e-01  2.8549450656372655e-01  2.1567541634982976e-01  1.4452661596673466e-01  7.2486759848930590e-02  0.0000000000000000e+00  0.0000000000000000e+00  7.4619041632041291e-02  1.4877803334340806e-01  2.2201975788621403e-01  2.9389265729901276e-01  3.6395361053119557e-01  4.3177066882201520e-01  4.9692571732056717e-01  5.5901705354477993e-01  6.1766186373431453e-01  6.7249858314376298e-01  7.2318912515825795e-01  7.6942096573196694e-01  8.1090907019324476e-01  8.4739765058226346e-01  8.7866174266708397e-01  9.0450859292370289e-01  9.2477884692530765e-01  9.3934753181544839e-01  9.4812482680719290e-01  9.5105661695817312e-01  9.4812482680719090e-01  9.3934753181544406e-01  9.2477884692530055e-01  9.0450859292369212e-01  8.7866174266707597e-01  8.4739765058225636e-01  8.1090907019323577e-01  7.6942096573195551e-01  7.2318912515824474e-01  6.7249858314374977e-01  6.1766186373430243e-01  5.5901705354476738e-01  4.9692571732055524e-01  4.3177066882200332e-01  3.6395361053118558e-01  2.9389265729900416e-01  2.2201975788620709e-01  1.4877803334340256e-01  7.4619041632038627e-02  0.0000000000000000e+00  0.0000000000000000e+00  7.6291272210137456e-02  1.5211218467079576e-01  2.2699527378615886e-01  3.0047886207281355e-01  3.7210989803137534e-01  4.4144675282601042e-01  5.0806194155195705e-01  5.7154475947840078e-01  6.3150381389703125e-01  6.8756943730997955e-01  7.3939596650044204e-01  7.8666387368393320e-01  8.2908173649361694e-01  8.6638803470027825e-01  8.9835276256970664e-01  9.2477884692530676e-01  9.4550336216943021e-01  9.6039853477400872e-01  9.6937253104678234e-01  9.7237002331657618e-01  9.6937253104678012e-01  9.6039853477400350e-01  9.4550336216942277e-01  9.2477884692530010e-01  8.9835276256970054e-01  8.6638803470027204e-01  8.2908173649360939e-01  7.8666387368392365e-01  7.3939596650042916e-01  6.8756943730996689e-01  6.3150381389701915e-01  5.7154475947838790e-01  5.0806194155194484e-01  4.4144675282599916e-01  3.7210989803136618e-01  3.0047886207280466e-01  2.2699527378615156e-01  1.5211218467079063e-01  7.6291272210135333e-02  0.0000000000000000e+00  0.0000000000000000e+00  7.7493141725636122e-02  1.5450851379725397e-01  2.3057128833962393e-01  3.0521251474257466e-01  3.7797200427109462e-01  4.4840117080289243e-01  5.1606579496594152e-01  5.8054870191191965e-01  6.4145233305074667e-01  6.9840119725514316e-01  7.5104418583504329e-01  7.9905673726236037e-01  8.4214283819085634e-01  8.8003684848111174e-01  9.1250513895848340e-01  9.3934753181544828e-01  9.6039853477400827e-01  9.7552836140077159e-01  9.8464373128339522e-01  9.8768844513538989e-01  9.8464373128339155e-01  9.7552836140076471e-01  9.6039853477400294e-01  9.3934753181544206e-01  9.1250513895847951e-01  8.8003684848110642e-01  8.4214283819084967e-01  7.9905673726235082e-01  7.5104418583503241e-01  6.9840119725513128e-01  6.4145233305073490e-01  5.8054870191190733e-01  5.1606579496592986e-01  4.4840117080288172e-01  3.7797200427108613e-01  3.0521251474256655e-01  2.3057128833961732e-01  1.5450851379724931e-01  7.7493141725633721e-02  0.0000000000000000e+00  0.0000000000000000e+00  7.8217240253311213e-02  1.5595224655685713e-01  2.3272575422774094e-01  3.0806443076548656e-01  3.8150378741603624e-01  4.5259104645325432e-01  5.2088793114466891e-01  5.8597336854611826e-01  6.4744608526665870e-01  7.0492708157726292e-01  7.5806196801643588e-01  8.0652315034223332e-01  8.5001184924973472e-01  8.8825994244910822e-01  9.2103161772682896e-01  9.4812482680719357e-01  9.6937253104678156e-01  9.8464373128339622e-01  9.9384427548937704e-01  9.9691743925020815e-01  9.9384427548937238e-01  9.8464373128338889e-01  9.6937253104677579e-01  9.4812482680718768e-01  9.2103161772682507e-01  8.8825994244910389e-01  8.5001184924972872e-01  8.0652315034222510e-01  7.5806196801642645e-01  7.0492708157725137e-01  6.4744608526664460e-01  5.8597336854610538e-01  5.2088793114465648e-01  4.5259104645324388e-01  3.8150378741602808e-01  3.0806443076548012e-01  2.3272575422773520e-01  1.5595224655685330e-01  7.8217240253309270e-02  0.0000000000000000e+00  0.0000000000000000e+00  7.8459103484953080e-02  1.5643448185705272e-01  2.3344538845187757e-01  3.0901702713091100e-01  3.8268347284867582e-01  4.5399054780043674e-01  5.2249862001507608e-01  5.8778531450731297e-01  6.494481170692310